# vtk DataFile Version 3.0
vtk output
ASCII
DATASET POLYDATA
POINTS 3 float
123.52 272.083 -509.478 119.329 274.15 -520.169 113.909 276.757 -532.825 

VERTICES 3 6
1 0 
1 1 
1 2 

CELL_DATA 3
POINT_DATA 3
SCALARS scalars bit
LOOKUP_TABLE default
1 1 1 
