# vtk DataFile Version 3.0
vtk output
ASCII
DATASET POLYDATA
POINTS 12 float
215.907 213.948 -464.239 215.879 209.819 -462.705 217.342 205.706 -462.907 
219.969 202.993 -464.62 222.544 202.892 -467.628 226.694 207.042 -472.085 
227.018 214.846 -475.457 226.915 219.86 -477.087 222.773 224.976 -477.441 
220.849 223.205 -474.126 220.773 219.555 -471.762 218.631 215.24 -467.622 

VERTICES 12 24
1 0 
1 1 
1 2 
1 3 
1 4 
1 5 
1 6 
1 7 
1 8 
1 9 
1 10 
1 11 

CELL_DATA 12
POINT_DATA 12
SCALARS scalars bit
LOOKUP_TABLE default
1 1 1 1 1 1 1 1
1 1 1 1 
