# vtk DataFile Version 3.0
vtk output
ASCII
DATASET POLYDATA
POINTS 38 float
175.324 297.001 -307.467 174.112 294.81 -319.952 172.529 293.348 -326.895 
170.626 293.366 -337.072 168.847 293.286 -346.755 167.5 292.755 -355.286 
169.59 294.111 -363.101 172.887 295.776 -367.218 175.946 299.384 -368.322 
179.061 305.77 -364.35 187.88 306.875 -368.024 190.208 313.651 -370.098 
193.928 321.628 -372.095 198.362 328.097 -375.97 199.721 331.095 -379.334 
201.018 334.142 -385.237 206.771 332.684 -392.164 217.769 340.198 -410.447 
225.206 338.918 -419.329 228.025 339.996 -416.715 227.394 340.367 -406.189 
219.711 340.257 -393.555 215.114 335.48 -390.071 210.628 332.881 -387.246 
209.559 331.782 -378.705 208.645 326.599 -371.717 202.202 323.782 -364.253 
202.78 316.918 -358.06 201.158 311.867 -352.864 192.835 317.317 -348.002 
194.365 319.331 -343.198 192.553 319.616 -337.958 191.701 318.766 -333.252 
190.572 316.549 -328.364 189.154 313.454 -322.966 187.583 310.526 -318.109 
186.049 308.263 -314.331 180.649 302.633 -309.639 
VERTICES 38 76
1 0 
1 1 
1 2 
1 3 
1 4 
1 5 
1 6 
1 7 
1 8 
1 9 
1 10 
1 11 
1 12 
1 13 
1 14 
1 15 
1 16 
1 17 
1 18 
1 19 
1 20 
1 21 
1 22 
1 23 
1 24 
1 25 
1 26 
1 27 
1 28 
1 29 
1 30 
1 31 
1 32 
1 33 
1 34 
1 35 
1 36 
1 37 

CELL_DATA 38
POINT_DATA 38
SCALARS scalars bit
LOOKUP_TABLE default
1 1 1 1 1 1 1 1
1 1 1 1 1 1 1 1
1 1 1 1 1 1 1 1
1 1 1 1 1 1 1 1
1 1 1 1 1 1 
