# vtk DataFile Version 3.0
vtk output
ASCII
DATASET POLYDATA
POINTS 22 float
201.018 334.142 -385.237 199.721 331.095 -379.334 198.362 328.097 -375.97 
193.928 321.628 -372.095 190.208 313.651 -370.098 187.88 306.875 -368.024 
188.161 306.624 -362.229 191.657 306.781 -356.406 196.039 311.166 -354.546 
201.158 311.867 -352.864 202.78 316.918 -358.06 202.202 323.782 -364.253 
208.645 326.599 -371.717 209.559 331.782 -378.705 210.628 332.881 -387.246 
215.114 335.48 -390.071 219.711 340.257 -393.555 227.394 340.367 -406.189 
228.025 339.996 -416.715 225.206 338.918 -419.329 217.769 340.198 -410.447 
206.771 332.684 -392.164 
VERTICES 22 44
1 0 
1 1 
1 2 
1 3 
1 4 
1 5 
1 6 
1 7 
1 8 
1 9 
1 10 
1 11 
1 12 
1 13 
1 14 
1 15 
1 16 
1 17 
1 18 
1 19 
1 20 
1 21 

CELL_DATA 22
POINT_DATA 22
SCALARS scalars bit
LOOKUP_TABLE default
1 1 1 1 1 1 1 1
1 1 1 1 1 1 1 1
1 1 1 1 1 1 
